<?xml version="1.0" encoding="UTF-8"?>

<!-- generated on 2025-03-03 19:14:49 by Eclipse SUMO GUI Version 1.22.0
<sumoConfiguration xmlns:xsi="http://www.w3.org/2001/XMLSchema-instance" xsi:noNamespaceSchemaLocation="http://sumo.dlr.de/xsd/sumoConfiguration.xsd">

    <input>
        <net-file value="D:/sumo-traffic-simulation/networks/cross.net.xml"/>
        <route-files value="D:/sumo-traffic-simulation/routes/krauss.rou.xml"/>
    </input>

    <output>
        <queue-output value="D:/sumo-traffic-simulation/results/queues.xml"/>
        <tripinfo-output value="D:/sumo-traffic-simulation/results/tripinfo.xml"/>
    </output>

    <time>
        <begin value="0"/>
        <end value="3600"/>
    </time>

    <traci_server>
        <remote-port value="7686"/>
    </traci_server>

</sumoConfiguration>
-->

<tripinfos xmlns:xsi="http://www.w3.org/2001/XMLSchema-instance" xsi:noNamespaceSchemaLocation="http://sumo.dlr.de/xsd/tripinfo_file.xsd">
</tripinfos>
